 Gaussian 09, Revision D.01,
 Gaussian 09:  EM64L-G09RevD.01 24-Apr-2013

 ---------------------------------------------------
 # CIS(D,NStates=200)/6-31g(d) Geom=Check Guess=Read
 ---------------------------------------------------

 Acetone: Transition electronic dipole moments between S0 and excited s
 tates
 ----------------------------------------------------------------------
 Structure from the checkpoint file:  "S0_opt_hf_6-31gd.chk"
 Charge =  0 Multiplicity = 1

                         Standard orientation:
 ---------------------------------------------------------------------
 Center     Atomic      Atomic             Coordinates (Angstroms)
 Number     Number       Type             X           Y           Z
 ---------------------------------------------------------------------
      1          8           0        0.000000    0.000000    1.379423
      2          6           0        0.000000    0.000000    0.187298
      3          6           0        0.000000    1.288417   -0.607548
      4          6           0        0.000000   -1.288417   -0.607548
      5          1           0        0.000000    2.133781    0.066356
      6          1           0       -0.874408    1.335957   -1.250328
      7          1           0        0.874408    1.335957   -1.250328
      8          1           0        0.000000   -2.133781    0.066356
      9          1           0       -0.874408   -1.335957   -1.250328
     10          1           0        0.874408   -1.335957   -1.250328
 ---------------------------------------------------------------------

 SCF Done:  E(RHF) =  -191.962236287     A.U. after    1 cycles
 E2 =    -0.5593699480D+00 EUMP2 =    -0.19252160623491D+03

 Excitation energies and oscillator strengths:

 Excited State   1:      Singlet-A2     5.3085 eV  233.56 nm  f=0.0000  <S**2>=0.000
       9 -> 17         0.10753
      16 -> 17         0.67353
      16 -> 21        -0.15096
 This state for optimization and/or second-order correction.
 Total Energy, E(CIS) =  -191.767154166
 Copying the excited state density for this state as the 1-particle RhoCI density.

 Excited State   2:      Singlet-B1    10.3161 eV  120.19 nm  f=0.0006  <S**2>=0.000
       8 -> 17        -0.13090
      10 -> 17         0.42165
      10 -> 21        -0.10152
      12 -> 17         0.51687
      12 -> 21        -0.10850

 Excited State   3:      Singlet-A1    10.4730 eV  118.38 nm  f=0.3299  <S**2>=0.000
      15 -> 17         0.65073
      15 -> 21        -0.10888
      16 -> 20         0.10391

 Excited State   4:      Singlet-A2    11.0218 eV  112.49 nm  f=0.0000  <S**2>=0.000
       9 -> 17        -0.37099
      14 -> 17         0.56518
      16 -> 17         0.11672

 Excited State   5:      Singlet-B2    11.4114 eV  108.65 nm  f=0.0235  <S**2>=0.000
      16 -> 18         0.67000
      16 -> 19         0.13581
      16 -> 26         0.12180

 Excited State   6:      Singlet-B2    12.3899 eV  100.07 nm  f=0.0576  <S**2>=0.000
      16 -> 18        -0.15375
      16 -> 19         0.65910
      16 -> 26         0.10609

 Excited State   7:      Singlet-B2    13.3123 eV   93.14 nm  f=0.0448  <S**2>=0.000
      13 -> 17         0.68495

 Excited State   8:      Singlet-A2    13.3603 eV   92.80 nm  f=0.0000  <S**2>=0.000
       9 -> 17        -0.14791
      12 -> 22        -0.10724
      14 -> 17        -0.13383
      16 -> 17         0.14731
      16 -> 21         0.62687

 Excited State   9:      Singlet-B1    13.5815 eV   91.29 nm  f=0.2795  <S**2>=0.000
      11 -> 18        -0.16904
      13 -> 20        -0.21866
      15 -> 18         0.61899

 Excited State  10:      Singlet-A1    13.6622 eV   90.75 nm  f=0.1106  <S**2>=0.000
      12 -> 18        -0.11522
      16 -> 20         0.65610
      16 -> 23        -0.14200

 Excited State  11:      Singlet-A2    13.7064 eV   90.46 nm  f=0.0000  <S**2>=0.000
       9 -> 17         0.51819
      14 -> 17         0.37279
      14 -> 21         0.10929
      16 -> 21         0.18341

 Excited State  12:      Singlet-B2    13.7419 eV   90.22 nm  f=0.1553  <S**2>=0.000
      12 -> 20         0.18869
      13 -> 21        -0.12498
      14 -> 18         0.43765
      16 -> 24         0.44831

 Excited State  13:      Singlet-B1    13.7720 eV   90.03 nm  f=0.0156  <S**2>=0.000
      10 -> 17        -0.10179
      14 -> 22         0.13262
      16 -> 22         0.65582

 Excited State  14:      Singlet-A2    13.8094 eV   89.78 nm  f=0.0000  <S**2>=0.000
      11 -> 20         0.20774
      13 -> 18         0.58605
      15 -> 20        -0.27438
      16 -> 21        -0.11237

 Excited State  15:      Singlet-B2    13.9076 eV   89.15 nm  f=0.8098  <S**2>=0.000
      10 -> 20         0.12368
      12 -> 20        -0.15704
      14 -> 18        -0.43469
      14 -> 19         0.10693
      16 -> 24         0.47468

 Excited State  16:      Singlet-B1    13.9206 eV   89.07 nm  f=0.1815  <S**2>=0.000
      10 -> 17         0.47937
      12 -> 17        -0.42878
      14 -> 22        -0.16223
      15 -> 18        -0.12146
      16 -> 22         0.12404

 Excited State  17:      Singlet-A1    14.0059 eV   88.52 nm  f=0.0827  <S**2>=0.000
       9 -> 23        -0.10135
      12 -> 19        -0.15117
      14 -> 20         0.10574
      16 -> 20         0.13626
      16 -> 23         0.63112

 Excited State  18:      Singlet-A1    14.4569 eV   85.76 nm  f=0.5718  <S**2>=0.000
       9 -> 20         0.10722
      10 -> 18        -0.18900
      12 -> 18         0.51621
      14 -> 20         0.39002
      16 -> 23        -0.10815

 Excited State  19:      Singlet-A1    14.7115 eV   84.28 nm  f=0.1525  <S**2>=0.000
      11 -> 17         0.64031
      13 -> 22         0.10248
      15 -> 17        -0.13319
      16 -> 23         0.11211

 Excited State  20:      Singlet-B1    14.7475 eV   84.07 nm  f=0.0050  <S**2>=0.000
      11 -> 19        -0.10843
      13 -> 23        -0.21995
      15 -> 19         0.61834
      15 -> 26         0.11511

 Excited State  21:      Singlet-A2    15.3161 eV   80.95 nm  f=0.0000  <S**2>=0.000
      11 -> 23         0.20792
      12 -> 22         0.11033
      13 -> 19         0.49434
      13 -> 24        -0.10966
      14 -> 21         0.18797
      15 -> 23        -0.34634

 Excited State  22:      Singlet-B2    15.3480 eV   80.78 nm  f=0.8109  <S**2>=0.000
      10 -> 23        -0.15745
      12 -> 23         0.19104
      13 -> 21         0.12464
      14 -> 18         0.11983
      14 -> 19         0.57016
      14 -> 24         0.11002
      15 -> 22        -0.11199
      16 -> 26        -0.16954

 Excited State  23:      Singlet-B2    15.8287 eV   78.33 nm  f=0.0039  <S**2>=0.000
       9 -> 18         0.19290
      12 -> 20         0.10763
      13 -> 21         0.18143
      15 -> 22        -0.18161
      16 -> 19        -0.10184
      16 -> 26         0.56279

 Excited State  24:      Singlet-A1    15.8447 eV   78.25 nm  f=0.3430  <S**2>=0.000
      11 -> 17         0.14993
      11 -> 21        -0.16528
      12 -> 18        -0.13074
      12 -> 19        -0.32624
      12 -> 24        -0.13649
      13 -> 22        -0.22071
      14 -> 23        -0.26414
      15 -> 21         0.37990

 Excited State  25:      Singlet-B1    15.8522 eV   78.21 nm  f=0.6857  <S**2>=0.000
       8 -> 17         0.24550
      11 -> 18         0.37344
      12 -> 21        -0.18257
      13 -> 20         0.31962
      13 -> 23         0.11141
      14 -> 22        -0.20771
      15 -> 18         0.22421
      15 -> 26         0.12222

 Excited State  26:      Singlet-A2    15.8811 eV   78.07 nm  f=0.0000  <S**2>=0.000
       9 -> 17        -0.11183
       9 -> 21         0.12976
      10 -> 22        -0.14284
      12 -> 22         0.29397
      13 -> 19        -0.13549
      13 -> 24         0.15193
      14 -> 21         0.51730
      15 -> 23         0.15040

 Excited State  27:      Singlet-B1    15.9740 eV   77.62 nm  f=0.0145  <S**2>=0.000
      10 -> 17         0.13611
      10 -> 21        -0.18093
      11 -> 18         0.21933
      11 -> 19         0.10292
      12 -> 17        -0.10321
      12 -> 21         0.35083
      13 -> 20         0.18421
      14 -> 22         0.41129
      15 -> 26         0.10342

 Excited State  28:      Singlet-B1    16.1086 eV   76.97 nm  f=0.0275  <S**2>=0.000
       8 -> 17        -0.32092
      13 -> 25        -0.13203
      15 -> 19         0.12273
      15 -> 24         0.56330

 Excited State  29:      Singlet-B2    16.3544 eV   75.81 nm  f=0.0620  <S**2>=0.000
      13 -> 21        -0.27561
      14 -> 19         0.21341
      15 -> 22         0.52203
      16 -> 24        -0.13798
      16 -> 26         0.19862

 Excited State  30:      Singlet-A2    16.4544 eV   75.35 nm  f=0.0000  <S**2>=0.000
      13 -> 18         0.25878
      13 -> 24         0.13870
      15 -> 20         0.61364
      15 -> 25        -0.14890

 Excited State  31:      Singlet-A1    16.5901 eV   74.73 nm  f=0.0184  <S**2>=0.000
      10 -> 18         0.17517
      12 -> 18         0.21179
      12 -> 19         0.33630
      14 -> 20        -0.15307
      14 -> 23         0.15693
      15 -> 21         0.45348
      16 -> 23         0.11778

 Excited State  32:      Singlet-B1    16.7267 eV   74.12 nm  f=0.0193  <S**2>=0.000
       8 -> 17         0.26171
      11 -> 18        -0.17527
      11 -> 19         0.37185
      13 -> 20        -0.19450
      13 -> 23         0.34522
      15 -> 18        -0.12645
      15 -> 19         0.19795
      15 -> 26         0.11121

 Excited State  33:      Singlet-B2    16.8048 eV   73.78 nm  f=0.0000  <S**2>=0.000
      12 -> 23        -0.16392
      12 -> 25         0.19798
      14 -> 24         0.61201

 Excited State  34:      Singlet-A1    16.8413 eV   73.62 nm  f=0.0273  <S**2>=0.000
       8 -> 18        -0.11014
      10 -> 18        -0.30955
      12 -> 18        -0.32469
      12 -> 19         0.23646
      14 -> 20         0.31673
      14 -> 23         0.14538
      15 -> 21         0.18337
      16 -> 20        -0.14655
      16 -> 25        -0.14345

 Excited State  35:      Singlet-A1    17.0235 eV   72.83 nm  f=0.2038  <S**2>=0.000
      10 -> 19        -0.19771
      12 -> 19        -0.10934
      14 -> 23         0.26223
      16 -> 25         0.55778

 Excited State  36:      Singlet-B2    17.2815 eV   71.74 nm  f=0.0149  <S**2>=0.000
       9 -> 18         0.38414
      12 -> 20         0.44015
      14 -> 18        -0.23725
      16 -> 18         0.12971
      16 -> 26        -0.22719

 Excited State  37:      Singlet-A2    17.3298 eV   71.54 nm  f=0.0000  <S**2>=0.000
      11 -> 25         0.10147
      13 -> 18        -0.10363
      13 -> 19         0.30356
      13 -> 24         0.44723
      14 -> 21        -0.16981
      15 -> 20        -0.15522
      15 -> 23         0.20722
      15 -> 25        -0.23959

 Excited State  38:      Singlet-A1    17.3685 eV   71.38 nm  f=0.0822  <S**2>=0.000
      10 -> 19        -0.10339
      10 -> 24        -0.13514
      11 -> 21         0.13032
      12 -> 19        -0.17007
      12 -> 24         0.46157
      13 -> 22         0.19775
      14 -> 20        -0.13966
      14 -> 25         0.22326
      15 -> 21         0.23963
      16 -> 23        -0.10207

 Excited State  39:      Singlet-B1    17.4440 eV   71.08 nm  f=0.7243  <S**2>=0.000
       8 -> 17         0.42643
      10 -> 17         0.11673
      11 -> 19        -0.19523
      12 -> 21         0.18587
      13 -> 23        -0.25233
      15 -> 24         0.35060

 Excited State  40:      Singlet-A2    17.4808 eV   70.93 nm  f=0.0000  <S**2>=0.000
      11 -> 23         0.13254
      11 -> 25        -0.12154
      13 -> 19         0.21939
      13 -> 24        -0.35284
      15 -> 23         0.53214

 Excited State  41:      Singlet-B2    17.7575 eV   69.82 nm  f=0.0749  <S**2>=0.000
      11 -> 22         0.19347
      13 -> 21         0.47028
      14 -> 19        -0.12074
      15 -> 22         0.40362

 Excited State  42:      Singlet-B2    17.8988 eV   69.27 nm  f=0.1010  <S**2>=0.000
       8 -> 23         0.11138
       9 -> 19         0.42587
      12 -> 23         0.42170
      13 -> 21        -0.11633
      14 -> 19        -0.16421
      14 -> 24         0.14012
      16 -> 19         0.10209

 Excited State  43:      Singlet-B1    18.0444 eV   68.71 nm  f=0.0038  <S**2>=0.000
       8 -> 21         0.15924
       9 -> 22         0.17921
      10 -> 21         0.16157
      12 -> 21         0.43887
      13 -> 20         0.13165
      14 -> 22        -0.36683
      16 -> 22         0.16172

 Excited State  44:      Singlet-A1    18.1207 eV   68.42 nm  f=0.0436  <S**2>=0.000
      10 -> 19         0.20368
      11 -> 21         0.22353
      12 -> 24        -0.18933
      13 -> 22         0.49001
      14 -> 23        -0.18602
      15 -> 21         0.12502
      16 -> 25         0.12294

 Excited State  45:      Singlet-A1    18.1973 eV   68.13 nm  f=0.7455  <S**2>=0.000
       9 -> 23        -0.10707
      10 -> 19        -0.14357
      11 -> 21         0.14012
      12 -> 19        -0.29958
      12 -> 24        -0.23796
      13 -> 22         0.15190
      14 -> 23         0.33771
      14 -> 25        -0.14754
      16 -> 25        -0.30757

 Excited State  46:      Singlet-A2    18.2444 eV   67.96 nm  f=0.0000  <S**2>=0.000
       8 -> 22         0.14360
       9 -> 21         0.27175
      10 -> 22         0.12657
      12 -> 22         0.49860
      13 -> 24        -0.13297
      14 -> 21        -0.27191
      16 -> 21         0.15181

 Excited State  47:      Singlet-B1    18.3551 eV   67.55 nm  f=0.0899  <S**2>=0.000
       8 -> 17         0.11012
      11 -> 18        -0.37909
      11 -> 24        -0.19434
      13 -> 20         0.42405
      14 -> 22         0.11948
      15 -> 26        -0.22955

 Excited State  48:      Singlet-A1    18.5651 eV   66.78 nm  f=0.0034  <S**2>=0.000
      10 -> 18         0.53257
      12 -> 18        -0.12692
      12 -> 24         0.10023
      14 -> 20         0.40582

 Excited State  49:      Singlet-B2    18.7964 eV   65.96 nm  f=0.0736  <S**2>=0.000
       9 -> 18         0.51667
      12 -> 20        -0.43756
      12 -> 23        -0.10412

 Excited State  50:      Singlet-B1    18.8317 eV   65.84 nm  f=0.0939  <S**2>=0.000
      11 -> 18        -0.16187
      11 -> 19        -0.14158
      11 -> 24        -0.23270
      11 -> 26         0.11354
      13 -> 25        -0.12921
      15 -> 19        -0.13778
      15 -> 26         0.55778

 Excited State  51:      Singlet-A2    18.8621 eV   65.73 nm  f=0.0000  <S**2>=0.000
      11 -> 20        -0.26850
      11 -> 25         0.14848
      13 -> 18         0.12757
      13 -> 24         0.17486
      15 -> 23         0.12946
      15 -> 25         0.54323
      15 -> 31         0.11749

 Excited State  52:      Singlet-B1    18.9713 eV   65.35 nm  f=0.1389  <S**2>=0.000
      11 -> 18        -0.25642
      11 -> 24         0.49444
      13 -> 20         0.20524
      13 -> 25         0.27215
      15 -> 24         0.10049
      15 -> 26         0.17846

 Excited State  53:      Singlet-B2    19.5687 eV   63.36 nm  f=0.3713  <S**2>=0.000
       9 -> 19         0.36582
       9 -> 24         0.34564
      10 -> 20        -0.23304
      12 -> 23        -0.21503
      12 -> 25         0.26305

 Excited State  54:      Singlet-A2    19.6192 eV   63.20 nm  f=0.0000  <S**2>=0.000
      11 -> 20         0.59338
      13 -> 18        -0.18858
      13 -> 24         0.11728
      15 -> 25         0.25841

 Excited State  55:      Singlet-A1    19.6381 eV   63.13 nm  f=0.3963  <S**2>=0.000
      10 -> 24         0.43975
      10 -> 26        -0.15100
      11 -> 17         0.10319
      11 -> 21         0.24112
      12 -> 24         0.21994
      13 -> 22        -0.10103
      14 -> 25        -0.30426

 Excited State  56:      Singlet-A1    19.8336 eV   62.51 nm  f=0.1532  <S**2>=0.000
       8 -> 18         0.14269
       9 -> 20         0.33427
      10 -> 19         0.40834
      11 -> 21         0.24141
      13 -> 22        -0.20535
      14 -> 23         0.22788

 Excited State  57:      Singlet-B2    19.8683 eV   62.40 nm  f=0.0447  <S**2>=0.000
       9 -> 19         0.30269
       9 -> 24        -0.14514
      10 -> 20         0.46680
      11 -> 22         0.11226
      12 -> 23        -0.31810
      14 -> 18         0.10252

 Excited State  58:      Singlet-B1    19.8909 eV   62.33 nm  f=0.0096  <S**2>=0.000
      11 -> 19         0.49113
      11 -> 24        -0.10865
      13 -> 23        -0.45448

 Excited State  59:      Singlet-A1    20.0352 eV   61.88 nm  f=0.0502  <S**2>=0.000
       8 -> 18        -0.30160
       9 -> 20        -0.34035
      10 -> 19         0.38692
      11 -> 21        -0.15020
      12 -> 18         0.10347
      12 -> 24         0.11983
      14 -> 23         0.18036

 Excited State  60:      Singlet-B2    20.0529 eV   61.83 nm  f=0.0624  <S**2>=0.000
       9 -> 19        -0.13053
       9 -> 24         0.39385
       9 -> 26        -0.12430
      10 -> 20         0.33728
      10 -> 23         0.27106
      12 -> 23         0.17605
      14 -> 26         0.22201

 Excited State  61:      Singlet-A2    20.2131 eV   61.34 nm  f=0.0000  <S**2>=0.000
       8 -> 22         0.13077
       9 -> 17         0.11845
       9 -> 21         0.51929
      10 -> 22         0.19401
      12 -> 22        -0.33749
      14 -> 21         0.14281

 Excited State  62:      Singlet-B1    20.2406 eV   61.26 nm  f=0.0051  <S**2>=0.000
       8 -> 21         0.13894
       9 -> 22         0.20503
      10 -> 17         0.10741
      10 -> 21         0.55759
      12 -> 21        -0.15197
      14 -> 22         0.27483

 Excited State  63:      Singlet-B2    20.2698 eV   61.17 nm  f=0.0153  <S**2>=0.000
      11 -> 22         0.61497
      13 -> 21        -0.27828

 Excited State  64:      Singlet-A1    20.2747 eV   61.15 nm  f=0.0427  <S**2>=0.000
       8 -> 18        -0.20264
       9 -> 20        -0.24069
      10 -> 24        -0.16602
      10 -> 26         0.10230
      11 -> 21         0.46971
      12 -> 24        -0.16298
      13 -> 22        -0.24128
      14 -> 23        -0.11554
      14 -> 25         0.12695

 Excited State  65:      Singlet-A2    20.4963 eV   60.49 nm  f=0.0000  <S**2>=0.000
       9 -> 21         0.20176
      10 -> 22        -0.34892
      11 -> 23         0.48812
      13 -> 19        -0.20453
      14 -> 21        -0.11023

 Excited State  66:      Singlet-A1    20.5112 eV   60.45 nm  f=0.0169  <S**2>=0.000
       8 -> 18         0.29485
       8 -> 19         0.23307
       9 -> 20        -0.22808
       9 -> 23         0.33200
      10 -> 24        -0.15788
      10 -> 26        -0.11839
      12 -> 19        -0.12451
      12 -> 26        -0.26418
      14 -> 23         0.17070

 Excited State  67:      Singlet-A2    20.5259 eV   60.40 nm  f=0.0000  <S**2>=0.000
       9 -> 21        -0.15942
      10 -> 22         0.50489
      11 -> 23         0.37036
      13 -> 19        -0.14608
      14 -> 21         0.15570

 Excited State  68:      Singlet-B1    20.6039 eV   60.18 nm  f=0.1340  <S**2>=0.000
       8 -> 21         0.10248
       9 -> 22         0.58117
      10 -> 21        -0.27364
      12 -> 21        -0.21430

 Excited State  69:      Singlet-A1    20.9677 eV   59.13 nm  f=0.0262  <S**2>=0.000
       8 -> 18        -0.28468
       8 -> 19         0.11423
       9 -> 20         0.28368
       9 -> 23         0.47940
      10 -> 26         0.13827
      12 -> 19        -0.14624
      12 -> 26         0.13928

 Excited State  70:      Singlet-B2    20.9862 eV   59.08 nm  f=0.3185  <S**2>=0.000
       8 -> 20         0.12152
       9 -> 24        -0.21051
      10 -> 20        -0.22441
      10 -> 23         0.50076
      11 -> 22         0.13287
      14 -> 19         0.17930
      14 -> 26         0.13717

 Excited State  71:      Singlet-B2    21.2619 eV   58.31 nm  f=0.1438  <S**2>=0.000
       9 -> 24        -0.23385
       9 -> 26        -0.15322
      10 -> 23        -0.19819
      10 -> 25         0.23578
      12 -> 25         0.18345
      14 -> 26         0.49968

 Excited State  72:      Singlet-A1    21.4889 eV   57.70 nm  f=0.1841  <S**2>=0.000
       8 -> 19        -0.13758
       9 -> 25        -0.12404
      10 -> 24         0.40695
      12 -> 24        -0.13266
      12 -> 26        -0.15857
      14 -> 25         0.48065

 Excited State  73:      Singlet-B2    21.4927 eV   57.69 nm  f=0.2461  <S**2>=0.000
       9 -> 19        -0.10603
       9 -> 24        -0.17475
      10 -> 20         0.12438
      10 -> 23         0.16594
      10 -> 25         0.13549
      12 -> 25         0.51291
      14 -> 24        -0.15037
      14 -> 26        -0.27907

 Excited State  74:      Singlet-A1    21.7389 eV   57.03 nm  f=0.2342  <S**2>=0.000
       8 -> 18         0.36767
       8 -> 19        -0.17072
       9 -> 20        -0.18954
       9 -> 23         0.13484
       9 -> 25        -0.10076
      10 -> 18        -0.12278
      10 -> 26         0.20518
      12 -> 26         0.41676

 Excited State  75:      Singlet-B1    22.0167 eV   56.31 nm  f=0.1500  <S**2>=0.000
      11 -> 24        -0.34008
      11 -> 26        -0.14573
      13 -> 25         0.57626

 Excited State  76:      Singlet-A1    22.0721 eV   56.17 nm  f=0.0231  <S**2>=0.000
       8 -> 19         0.54527
       9 -> 23        -0.23830
      12 -> 26         0.24633
      14 -> 25         0.18777

 Excited State  77:      Singlet-A2    22.1359 eV   56.01 nm  f=0.0000  <S**2>=0.000
      11 -> 25        -0.29594
      13 -> 24         0.14279
      13 -> 26         0.60609

 Excited State  78:      Singlet-A2    22.7367 eV   54.53 nm  f=0.0000  <S**2>=0.000
       7 -> 17        -0.26548
       8 -> 22         0.27263
      10 -> 22        -0.10824
      11 -> 25         0.16517
      16 -> 28         0.51198
      16 -> 32        -0.11045

 Excited State  79:      Singlet-B2    22.7381 eV   54.53 nm  f=0.0119  <S**2>=0.000
       8 -> 20        -0.26194
       8 -> 23         0.28412
       9 -> 26        -0.27092
      10 -> 25        -0.20812
      16 -> 27         0.40697

 Excited State  80:      Singlet-B2    22.9116 eV   54.11 nm  f=0.0509  <S**2>=0.000
       8 -> 20         0.44912
       8 -> 23         0.23498

 The electronic state is 1-A1.
 Alpha  occ. eigenvalues --  -20.55166 -11.32986 -11.23027 -11.23025  -1.39711
 Alpha  occ. eigenvalues --   -1.03997  -0.96819  -0.73953  -0.64764  -0.63592
 Alpha  occ. eigenvalues --   -0.62444  -0.56266  -0.56132  -0.53732  -0.49029
 Alpha  occ. eigenvalues --   -0.40693
 Alpha virt. eigenvalues --    0.16866   0.22520   0.28547   0.29594   0.31638
 Alpha virt. eigenvalues --    0.32620   0.33626   0.36815   0.46737   0.49189
 Alpha virt. eigenvalues --    0.69875   0.75536   0.76261   0.79225   0.81387

 Mulliken charges:
               1
     1  O   -0.513188
     2  C    0.524404
     3  C   -0.578675
     4  C   -0.578675
     5  H    0.208126
     6  H    0.182471
     7  H    0.182471
     8  H    0.208126
     9  H    0.182471
    10  H    0.182471
 Sum of Mulliken charges =   0.00000

 Dipole moment (field-independent basis, Debye):
    X=              0.0000    Y=              0.0000    Z=             -3.1189  Tot=              3.1189
 Quadrupole moment (field-independent basis, Debye-Ang):
   XX=            -24.1260   YY=            -23.6983   ZZ=            -29.1228
   XY=              0.0000   XZ=              0.0000   YZ=              0.0000

 Normal termination of Gaussian 09 at Thu Dec 17 20:55:59 2015.
