 Gaussian 09, Revision D.01,
 Gaussian 09:  EM64L-G09RevD.01 24-Apr-2013

 ----------------------------------------------------------------------
 # int=ultrafine opt=tight b3lyp/6-311g* td(nstates=5) nosymm guess=rea
 d
 ----------------------------------------------------------------------

 ----------------
 R6G S1 S2 and S3
 ----------------
 Symbolic Z-matrix:
 Charge =  1 Multiplicity = 1

 SCF Done:  E(RB3LYP) =  -1420.97549846     A.U. after    1 cycles
 SCF Done:  E(RB3LYP) =  -1420.97436465     A.U. after   12 cycles
 SCF Done:  E(RB3LYP) =  -1420.97391492     A.U. after   11 cycles
 SCF Done:  E(RB3LYP) =  -1420.97372985     A.U. after   10 cycles
 SCF Done:  E(RB3LYP) =  -1420.97375168     A.U. after   11 cycles
 SCF Done:  E(RB3LYP) =  -1420.97385291     A.U. after    9 cycles
 SCF Done:  E(RB3LYP) =  -1420.97384019     A.U. after   12 cycles
 SCF Done:  E(RB3LYP) =  -1420.91212986     A.U. after   15 cycles
 SCF Done:  E(RB3LYP) =  -1420.97355609     A.U. after   10 cycles
 SCF Done:  E(RB3LYP) =  -1420.95742053     A.U. after   15 cycles
 SCF Done:  E(RB3LYP) =  -1420.96599415     A.U. after    7 cycles
 SCF Done:  E(RB3LYP) =  -1420.96599748     A.U. after    7 cycles
 SCF Done:  E(RB3LYP) =  -1420.96599729     A.U. after    6 cycles
 SCF Done:  E(RB3LYP) =  -1420.96599655     A.U. after    6 cycles
 SCF Done:  E(RB3LYP) =  -1420.96599568     A.U. after    5 cycles
 SCF Done:  E(RB3LYP) =  -1420.96599549     A.U. after    5 cycles
 SCF Done:  E(RB3LYP) =  -1420.96599561     A.U. after    3 cycles
 SCF Done:  E(RB3LYP) =  -1420.96599561     A.U. after    4 cycles
 SCF Done:  E(RB3LYP) =  -1420.96599562     A.U. after    4 cycles
 SCF Done:  E(RB3LYP) =  -1420.96599561     A.U. after    4 cycles

 Excitation energies and oscillator strengths:

 Excited state symmetry could not be determined.
 Excited State   1:      Singlet-?Sym    2.4621 eV  503.58 nm  f=0.4599  <S**2>=0.000
     117 ->119        -0.19867
     118 ->119         0.67433
 This state for optimization and/or second-order correction.
 Total Energy, E(TD-HF/TD-KS) =  -1420.87551601
 Copying the excited state density for this state as the 1-particle RhoCI density.

 Excited state symmetry could not be determined.
 Excited State   2:      Singlet-?Sym    2.8795 eV  430.58 nm  f=0.1864  <S**2>=0.000
     116 ->119         0.17677
     117 ->119         0.65140
     118 ->119         0.19660

 Excited state symmetry could not be determined.
 Excited State   3:      Singlet-?Sym    3.4031 eV  364.33 nm  f=0.2581  <S**2>=0.000
     114 ->119         0.17772
     116 ->119         0.63748
     117 ->119        -0.14964

 Excited state symmetry could not be determined.
 Excited State   4:      Singlet-?Sym    3.6145 eV  343.02 nm  f=0.0716  <S**2>=0.000
     113 ->119        -0.16767
     114 ->119         0.24606
     116 ->119        -0.10076
     118 ->120        -0.61866

 Excited state symmetry could not be determined.
 Excited State   5:      Singlet-?Sym    3.6291 eV  341.64 nm  f=0.0027  <S**2>=0.000
     113 ->119         0.33053
     114 ->119        -0.52261
     118 ->120        -0.32108

 Optimization completed.
    -- Stationary point found.

                          Input orientation:
 ---------------------------------------------------------------------
 Center     Atomic      Atomic             Coordinates (Angstroms)
 Number     Number       Type             X           Y           Z
 ---------------------------------------------------------------------
      1          6           0        3.801980   -0.768591    0.463588
      2          6           0        3.629988   -2.132538    0.018044
      3          6           0        2.326435   -2.577487   -0.283582
      4          6           0        1.232899   -1.767474   -0.099320
      5          6           0        1.342998   -0.434903    0.423752
      6          6           0        2.683586    0.008388    0.655335
      7          8           0        0.017009   -2.297408   -0.427537
      8          6           0       -1.104421   -1.557593   -0.236726
      9          6           0       -1.092984   -0.261399    0.259880
     10          6           0        0.206173    0.358703    0.596618
     11          6           0       -2.302616   -2.202793   -0.560565
     12          6           0       -3.555509   -1.557179   -0.382703
     13          6           0       -3.576844   -0.226580    0.118801
     14          6           0       -2.351992    0.355499    0.423928
     15          6           0        0.275756    1.702189    1.203316
     16          6           0       -0.088162    2.896576    0.529524
     17          6           0       -0.043856    4.120252    1.210315
     18          6           0        0.355223    4.187070    2.538815
     19          6           0        0.737032    3.021603    3.202138
     20          6           0        0.702548    1.800583    2.538557
     21          6           0       -0.430407    2.854459   -0.919925
     22          8           0       -0.631346    4.076084   -1.438571
     23          6           0       -0.945603    4.160922   -2.856652
     24          8           0       -0.515347    1.828802   -1.565704
     25          6           0        0.315341    4.193124   -3.700495
     26          6           0        5.161250   -0.134542    0.626264
     27          6           0       -4.830995    0.607392    0.260263
     28          7           0        4.662096   -3.004876   -0.195783
     29          6           0        5.948966   -3.093266    0.509822
     30          6           0        6.551361   -4.479106    0.309177
     31          7           0       -4.646786   -2.318176   -0.724061
     32          6           0       -6.051223   -2.166173   -0.349627
     33          6           0       -6.844434   -3.393047   -0.781621
     34          1           0        2.163441   -3.585481   -0.650696
     35          1           0        2.821145    1.037645    0.962235
     36          1           0       -2.251943   -3.220828   -0.931083
     37          1           0       -2.362776    1.368353    0.809067
     38          1           0       -0.313700    5.021968    0.676558
     39          1           0        0.377598    5.142470    3.050928
     40          1           0        1.052870    3.060644    4.239228
     41          1           0        0.978036    0.894566    3.067391
     42          1           0       -1.512677    5.087280   -2.941971
     43          1           0       -1.584884    3.318551   -3.120659
     44          1           0        0.052395    4.346089   -4.750739
     45          1           0        0.863913    3.252975   -3.623317
     46          1           0        0.970449    5.011238   -3.393478
     47          1           0        5.771984   -0.269574   -0.270330
     48          1           0        5.057841    0.937913    0.792736
     49          1           0        5.723532   -0.540794    1.470028
     50          1           0       -4.569229    1.610494    0.598132
     51          1           0       -5.353903    0.722349   -0.693163
     52          1           0       -5.541952    0.205485    0.984718
     53          1           0        4.372330   -3.883479   -0.601884
     54          1           0        5.798348   -2.902316    1.577628
     55          1           0        6.641740   -2.337907    0.134340
     56          1           0        7.518679   -4.544833    0.809909
     57          1           0        6.713848   -4.689392   -0.751496
     58          1           0        5.908765   -5.260427    0.724731
     59          1           0       -4.424912   -3.207617   -1.150238
     60          1           0       -6.468077   -1.268067   -0.812345
     61          1           0       -6.120388   -2.030138    0.735667
     62          1           0       -7.893340   -3.274419   -0.506486
     63          1           0       -6.476099   -4.300569   -0.295589
     64          1           0       -6.801549   -3.533425   -1.864963
 ---------------------------------------------------------------------

 Alpha  occ. eigenvalues --  -19.30331 -19.24986 -19.19496 -14.45076 -14.43557
 Alpha  occ. eigenvalues --  -10.39319 -10.36912 -10.35520 -10.35152 -10.34148
 Alpha  occ. eigenvalues --  -10.33712 -10.31099 -10.30768 -10.30696 -10.30683
 Alpha  occ. eigenvalues --  -10.30103 -10.30004 -10.29842 -10.29841 -10.29479
 Alpha  occ. eigenvalues --  -10.29099 -10.28728 -10.28594 -10.28456 -10.28372
 Alpha  occ. eigenvalues --  -10.28183 -10.27963 -10.27456 -10.26739 -10.26158
 Alpha  occ. eigenvalues --  -10.26152 -10.25425 -10.23901  -1.22725  -1.19503
 Alpha  occ. eigenvalues --   -1.10829  -1.06292  -1.04884  -0.99213  -0.97565
 Alpha  occ. eigenvalues --   -0.96505  -0.92483  -0.90472  -0.88388  -0.88083
 Alpha  occ. eigenvalues --   -0.87507  -0.86949  -0.84610  -0.84554  -0.83642
 Alpha  occ. eigenvalues --   -0.80474  -0.79556  -0.77461  -0.75847  -0.74508
 Alpha  occ. eigenvalues --   -0.74093  -0.73496  -0.73066  -0.72283  -0.71741
 Alpha  occ. eigenvalues --   -0.69438  -0.67732  -0.66450  -0.65247  -0.63680
 Alpha  occ. eigenvalues --   -0.62691  -0.61512  -0.61029  -0.59428  -0.59251
 Alpha  occ. eigenvalues --   -0.58262  -0.57800  -0.57548  -0.57280  -0.56655
 Alpha  occ. eigenvalues --   -0.56272  -0.56230  -0.56011  -0.55098  -0.54846
 Alpha  occ. eigenvalues --   -0.54564  -0.53952  -0.53528  -0.52807  -0.52753
 Alpha  occ. eigenvalues --   -0.52677  -0.51980  -0.50618  -0.49929  -0.49446
 Alpha  occ. eigenvalues --   -0.48892  -0.48761  -0.48586  -0.48180  -0.47976
 Alpha  occ. eigenvalues --   -0.47752  -0.47459  -0.47388  -0.46821  -0.46658
 Alpha  occ. eigenvalues --   -0.46451  -0.46201  -0.45968  -0.45679  -0.45436
 Alpha  occ. eigenvalues --   -0.45373  -0.44463  -0.43741  -0.42473  -0.41267
 Alpha  occ. eigenvalues --   -0.39306  -0.37567  -0.36730  -0.36584  -0.36453
 Alpha  occ. eigenvalues --   -0.34495  -0.33110  -0.30284
 Alpha virt. eigenvalues --   -0.20612  -0.15040  -0.12579  -0.11954  -0.11022
 Alpha virt. eigenvalues --   -0.10239  -0.06304  -0.05598  -0.04858  -0.04613
 Alpha virt. eigenvalues --   -0.04469  -0.03998  -0.03890  -0.02501  -0.02437

 Mulliken charges:
               1
     1  C    0.109585
     2  C    0.379555
     3  C   -0.315808
     4  C    0.252969
     5  C   -0.120030
     6  C   -0.239359
     7  O   -0.316556
     8  C    0.245098
     9  C   -0.001823
    10  C    0.208776
    11  C   -0.342675
    12  C    0.410602
    13  C    0.111602
    14  C   -0.259086
    15  C   -0.073197
    16  C   -0.130638
    17  C   -0.143307
    18  C   -0.177354
    19  C   -0.169300
    20  C   -0.188055
    21  C    0.456660
    22  O   -0.329507
    23  C   -0.234544
    24  O   -0.359273
    25  C   -0.631687
    26  C   -0.715203
    27  C   -0.717159
    28  N   -0.641165
    29  C   -0.273698
    30  C   -0.669306
    31  N   -0.678341
    32  C   -0.255552
    33  C   -0.669292
    34  H    0.229575
    35  H    0.241190
    36  H    0.222089
    37  H    0.232133
    38  H    0.237574
    39  H    0.225101
    40  H    0.224232
    41  H    0.220744
    42  H    0.227896
    43  H    0.230254
    44  H    0.225845
    45  H    0.227116
    46  H    0.222701
    47  H    0.250092
    48  H    0.239993
    49  H    0.240531
    50  H    0.236526
    51  H    0.246465
    52  H    0.240014
    53  H    0.361055
    54  H    0.233512
    55  H    0.240425
    56  H    0.244937
    57  H    0.232310
    58  H    0.224497
    59  H    0.362676
    60  H    0.233107
    61  H    0.229623
    62  H    0.241964
    63  H    0.224027
    64  H    0.228864
 Sum of Mulliken charges =   1.00000

 Dipole moment (field-independent basis, Debye):
    X=              1.3836    Y=             -3.3247    Z=              1.3028  Tot=              3.8296
 Quadrupole moment (field-independent basis, Debye-Ang):
   XX=            -85.9974   YY=           -129.6334   ZZ=           -176.7982
   XY=            -11.2991   XZ=             12.4115   YZ=              5.1067

 Normal termination of Gaussian 09 at Wed Oct 30 05:52:22 2019.
